# t (s)	mx ()	my ()	mz ()	B_extx (T)	B_exty (T)	B_extz (T)
0	5.0235623e-05	-1.7900196e-05	-0.59230685	0	0	0
1.0002279231756574e-10	6.506044e-05	3.2563315e-05	-0.5912729	0	0	0
2.000225578701453e-10	6.111112e-05	6.606225e-05	-0.5404467	0	0	0
3.000229317344483e-10	-4.620958e-05	5.2509247e-05	-0.33808342	0	0	0
4.000735285904764e-10	-6.999428e-05	-5.2271957e-05	-0.8391797	0	0	0
5e-10	-6.5466586e-05	-2.4942945e-05	-0.13249196	0	0	0
