//Amumax, fork of mumax 3.10 [linux_amd64 go1.19.1(gc) CUDA-11.2]
//GPU info: NVIDIA GeForce RTX 3080 Ti(12042MB), CUDA Driver 12.0, cc=8.6, using cc=80 PTX
//output directory: /home/mat/gh/pyzfn/tests/test.zarr/
setgridsize(50, 1, 1)
setcellsize(4e-9, 4e-9, 4e-9)
setpbc(0, 0, 0)
//resizing...
msat = 760e3
aex = 13e-12
alpha = 1e-7
B_ext = vector(0.1, 0, 0)
m = uniform(1, 0, 0)
minimize()
autosave(m, 1e-11)
run(1e-10)
//**************** Simulation Ended ******************//
